<VTKFile type="UnstructuredGrid"  version="0.1"   >
<UnstructuredGrid>  
<Piece  NumberOfPoints="      289"  NumberOfCells="      512">  
<Points>  
<DataArray  type="Float32"  NumberOfComponents="3"  format="ascii">  
 1.000000 0.000000 0.000000 
 0.875000 0.125000 0.000000 
 0.875000 0.000000 0.000000 
 0.937500 0.062500 0.000000 
 0.937500 0.000000 0.000000 
 0.875000 0.062500 0.000000 
 0.750000 0.250000 0.000000 
 0.750000 0.125000 0.000000 
 0.812500 0.187500 0.000000 
 0.812500 0.125000 0.000000 
 0.750000 0.187500 0.000000 
 0.750000 0.000000 0.000000 
 0.812500 0.062500 0.000000 
 0.812500 0.000000 0.000000 
 0.750000 0.062500 0.000000 
 0.000000 1.000000 0.000000 
 0.125000 0.875000 0.000000 
 0.125000 1.000000 0.000000 
 0.062500 0.937500 0.000000 
 0.062500 1.000000 0.000000 
 0.125000 0.937500 0.000000 
 0.250000 0.750000 0.000000 
 0.250000 0.875000 0.000000 
 0.187500 0.812500 0.000000 
 0.187500 0.875000 0.000000 
 0.250000 0.812500 0.000000 
 0.250000 1.000000 0.000000 
 0.187500 0.937500 0.000000 
 0.187500 1.000000 0.000000 
 0.250000 0.937500 0.000000 
 0.500000 0.500000 0.000000 
 0.375000 0.625000 0.000000 
 0.375000 0.500000 0.000000 
 0.437500 0.562500 0.000000 
 0.437500 0.500000 0.000000 
 0.375000 0.562500 0.000000 
 0.250000 0.625000 0.000000 
 0.312500 0.687500 0.000000 
 0.312500 0.625000 0.000000 
 0.250000 0.687500 0.000000 
 0.250000 0.500000 0.000000 
 0.312500 0.562500 0.000000 
 0.312500 0.500000 0.000000 
 0.250000 0.562500 0.000000 
 0.625000 0.375000 0.000000 
 0.625000 0.500000 0.000000 
 0.562500 0.437500 0.000000 
 0.562500 0.500000 0.000000 
 0.625000 0.437500 0.000000 
 0.750000 0.375000 0.000000 
 0.687500 0.312500 0.000000 
 0.687500 0.375000 0.000000 
 0.750000 0.312500 0.000000 
 0.750000 0.500000 0.000000 
 0.687500 0.437500 0.000000 
 0.687500 0.500000 0.000000 
 0.750000 0.437500 0.000000 
 0.500000 0.000000 0.000000 
 0.375000 0.125000 0.000000 
 0.375000 0.000000 0.000000 
 0.437500 0.062500 0.000000 
 0.437500 0.000000 0.000000 
 0.375000 0.062500 0.000000 
 0.250000 0.250000 0.000000 
 0.250000 0.125000 0.000000 
 0.312500 0.187500 0.000000 
 0.312500 0.125000 0.000000 
 0.250000 0.187500 0.000000 
 0.250000 0.000000 0.000000 
 0.312500 0.062500 0.000000 
 0.312500 0.000000 0.000000 
 0.250000 0.062500 0.000000 
 0.500000 1.000000 0.000000 
 0.625000 0.875000 0.000000 
 0.625000 1.000000 0.000000 
 0.562500 0.937500 0.000000 
 0.562500 1.000000 0.000000 
 0.625000 0.937500 0.000000 
 0.750000 0.750000 0.000000 
 0.750000 0.875000 0.000000 
 0.687500 0.812500 0.000000 
 0.687500 0.875000 0.000000 
 0.750000 0.812500 0.000000 
 0.750000 1.000000 0.000000 
 0.687500 0.937500 0.000000 
 0.687500 1.000000 0.000000 
 0.750000 0.937500 0.000000 
 0.000000 0.500000 0.000000 
 0.125000 0.375000 0.000000 
 0.125000 0.500000 0.000000 
 0.062500 0.437500 0.000000 
 0.062500 0.500000 0.000000 
 0.125000 0.437500 0.000000 
 0.250000 0.375000 0.000000 
 0.187500 0.312500 0.000000 
 0.187500 0.375000 0.000000 
 0.250000 0.312500 0.000000 
 0.187500 0.437500 0.000000 
 0.187500 0.500000 0.000000 
 0.250000 0.437500 0.000000 
 1.000000 0.500000 0.000000 
 0.875000 0.625000 0.000000 
 0.875000 0.500000 0.000000 
 0.937500 0.562500 0.000000 
 0.937500 0.500000 0.000000 
 0.875000 0.562500 0.000000 
 0.750000 0.625000 0.000000 
 0.812500 0.687500 0.000000 
 0.812500 0.625000 0.000000 
 0.750000 0.687500 0.000000 
 0.812500 0.562500 0.000000 
 0.812500 0.500000 0.000000 
 0.750000 0.562500 0.000000 
 0.500000 0.375000 0.000000 
 0.500000 0.437500 0.000000 
 0.562500 0.375000 0.000000 
 0.500000 0.250000 0.000000 
 0.625000 0.250000 0.000000 
 0.500000 0.312500 0.000000 
 0.562500 0.312500 0.000000 
 0.562500 0.250000 0.000000 
 0.625000 0.312500 0.000000 
 0.687500 0.250000 0.000000 
 0.500000 0.625000 0.000000 
 0.500000 0.562500 0.000000 
 0.437500 0.625000 0.000000 
 0.500000 0.750000 0.000000 
 0.375000 0.750000 0.000000 
 0.500000 0.687500 0.000000 
 0.437500 0.687500 0.000000 
 0.437500 0.750000 0.000000 
 0.375000 0.687500 0.000000 
 0.312500 0.750000 0.000000 
 0.000000 0.875000 0.000000 
 0.000000 0.937500 0.000000 
 0.062500 0.875000 0.000000 
 0.000000 0.750000 0.000000 
 0.125000 0.750000 0.000000 
 0.000000 0.812500 0.000000 
 0.062500 0.812500 0.000000 
 0.062500 0.750000 0.000000 
 0.125000 0.812500 0.000000 
 0.187500 0.750000 0.000000 
 1.000000 0.125000 0.000000 
 1.000000 0.062500 0.000000 
 0.937500 0.125000 0.000000 
 1.000000 0.250000 0.000000 
 0.875000 0.250000 0.000000 
 1.000000 0.187500 0.000000 
 0.937500 0.187500 0.000000 
 0.937500 0.250000 0.000000 
 0.875000 0.187500 0.000000 
 0.812500 0.250000 0.000000 
 0.000000 0.375000 0.000000 
 0.000000 0.437500 0.000000 
 0.062500 0.375000 0.000000 
 0.000000 0.250000 0.000000 
 0.125000 0.250000 0.000000 
 0.000000 0.312500 0.000000 
 0.062500 0.312500 0.000000 
 0.062500 0.250000 0.000000 
 0.125000 0.312500 0.000000 
 0.187500 0.250000 0.000000 
 1.000000 0.625000 0.000000 
 1.000000 0.562500 0.000000 
 0.937500 0.625000 0.000000 
 1.000000 0.750000 0.000000 
 0.875000 0.750000 0.000000 
 1.000000 0.687500 0.000000 
 0.937500 0.687500 0.000000 
 0.937500 0.750000 0.000000 
 0.875000 0.687500 0.000000 
 0.812500 0.750000 0.000000 
 0.500000 0.125000 0.000000 
 0.500000 0.062500 0.000000 
 0.437500 0.125000 0.000000 
 0.375000 0.250000 0.000000 
 0.500000 0.187500 0.000000 
 0.437500 0.187500 0.000000 
 0.437500 0.250000 0.000000 
 0.375000 0.187500 0.000000 
 0.312500 0.250000 0.000000 
 0.500000 0.875000 0.000000 
 0.500000 0.937500 0.000000 
 0.562500 0.875000 0.000000 
 0.625000 0.750000 0.000000 
 0.500000 0.812500 0.000000 
 0.562500 0.812500 0.000000 
 0.562500 0.750000 0.000000 
 0.625000 0.812500 0.000000 
 0.687500 0.750000 0.000000 
 0.625000 0.000000 0.000000 
 0.562500 0.000000 0.000000 
 0.562500 0.062500 0.000000 
 0.625000 0.125000 0.000000 
 0.687500 0.000000 0.000000 
 0.625000 0.062500 0.000000 
 0.687500 0.062500 0.000000 
 0.562500 0.125000 0.000000 
 0.562500 0.187500 0.000000 
 0.375000 1.000000 0.000000 
 0.437500 1.000000 0.000000 
 0.437500 0.937500 0.000000 
 0.375000 0.875000 0.000000 
 0.312500 1.000000 0.000000 
 0.375000 0.937500 0.000000 
 0.312500 0.937500 0.000000 
 0.437500 0.875000 0.000000 
 0.437500 0.812500 0.000000 
 0.000000 0.625000 0.000000 
 0.000000 0.562500 0.000000 
 0.062500 0.562500 0.000000 
 0.125000 0.625000 0.000000 
 0.125000 0.562500 0.000000 
 0.187500 0.562500 0.000000 
 0.062500 0.625000 0.000000 
 0.000000 0.687500 0.000000 
 0.062500 0.687500 0.000000 
 1.000000 0.375000 0.000000 
 1.000000 0.437500 0.000000 
 0.937500 0.437500 0.000000 
 0.875000 0.375000 0.000000 
 0.875000 0.437500 0.000000 
 0.812500 0.437500 0.000000 
 0.937500 0.375000 0.000000 
 1.000000 0.312500 0.000000 
 0.937500 0.312500 0.000000 
 0.000000 0.000000 0.000000 
 0.125000 0.000000 0.000000 
 0.000000 0.125000 0.000000 
 0.062500 0.000000 0.000000 
 0.000000 0.062500 0.000000 
 0.062500 0.062500 0.000000 
 0.125000 0.125000 0.000000 
 0.187500 0.000000 0.000000 
 0.125000 0.062500 0.000000 
 0.187500 0.062500 0.000000 
 0.062500 0.125000 0.000000 
 0.000000 0.187500 0.000000 
 0.062500 0.187500 0.000000 
 1.000000 1.000000 0.000000 
 0.875000 1.000000 0.000000 
 1.000000 0.875000 0.000000 
 0.937500 1.000000 0.000000 
 1.000000 0.937500 0.000000 
 0.937500 0.937500 0.000000 
 0.875000 0.875000 0.000000 
 0.812500 1.000000 0.000000 
 0.875000 0.937500 0.000000 
 0.812500 0.937500 0.000000 
 0.937500 0.875000 0.000000 
 1.000000 0.812500 0.000000 
 0.937500 0.812500 0.000000 
 0.437500 0.437500 0.000000 
 0.375000 0.375000 0.000000 
 0.375000 0.437500 0.000000 
 0.312500 0.437500 0.000000 
 0.437500 0.375000 0.000000 
 0.437500 0.312500 0.000000 
 0.562500 0.562500 0.000000 
 0.625000 0.625000 0.000000 
 0.625000 0.562500 0.000000 
 0.687500 0.562500 0.000000 
 0.562500 0.625000 0.000000 
 0.562500 0.687500 0.000000 
 0.625000 0.187500 0.000000 
 0.687500 0.125000 0.000000 
 0.687500 0.187500 0.000000 
 0.375000 0.812500 0.000000 
 0.312500 0.875000 0.000000 
 0.312500 0.812500 0.000000 
 0.125000 0.687500 0.000000 
 0.187500 0.625000 0.000000 
 0.187500 0.687500 0.000000 
 0.875000 0.312500 0.000000 
 0.812500 0.375000 0.000000 
 0.812500 0.312500 0.000000 
 0.125000 0.187500 0.000000 
 0.187500 0.125000 0.000000 
 0.187500 0.187500 0.000000 
 0.875000 0.812500 0.000000 
 0.812500 0.875000 0.000000 
 0.812500 0.812500 0.000000 
 0.375000 0.312500 0.000000 
 0.312500 0.375000 0.000000 
 0.312500 0.312500 0.000000 
 0.625000 0.687500 0.000000 
 0.687500 0.625000 0.000000 
 0.687500 0.687500 0.000000 
</DataArray>  
</Points>  
<Cells>  
<DataArray  type="Int32"  Name="connectivity"  format="ascii">  
        0         3         4  
        3         1         5  
        4         5         2  
        3         5         4  
        1         8         9  
        8         6        10  
        9        10         7  
        8        10         9  
        2        12        13  
       12         7        14  
       13        14        11  
       12        14        13  
        1         9         5  
        9         7        12  
        5        12         2  
        9        12         5  
       15        18        19  
       18        16        20  
       19        20        17  
       18        20        19  
       16        23        24  
       23        21        25  
       24        25        22  
       23        25        24  
       17        27        28  
       27        22        29  
       28        29        26  
       27        29        28  
       16        24        20  
       24        22        27  
       20        27        17  
       24        27        20  
       30        33        34  
       33        31        35  
       34        35        32  
       33        35        34  
       31        37        38  
       37        21        39  
       38        39        36  
       37        39        38  
[...]
<PointData  Scalars="U"> 
<DataArray  type="Float32"  Name="U"  format="ascii">	 
 0.000000e+00 
 3.819447e-01 
 3.826693e-01 
 1.949391e-01 
 1.953125e-01 
 3.822211e-01 
 7.051058e-01 
 7.054320e-01 
 5.541787e-01 
 5.543775e-01 
 7.052399e-01 
 7.060826e-01 
 5.546725e-01 
 5.551052e-01 
 7.057041e-01 
 0.000000e+00 
 3.819447e-01 
 3.826693e-01 
 1.949391e-01 
 1.953125e-01 
 3.822211e-01 
 7.051058e-01 
 7.054320e-01 
 5.541787e-01 
 5.543775e-01 
 7.052399e-01 
 7.060826e-01 
 5.546725e-01 
 5.551052e-01 
 7.057041e-01 
 9.967931e-01 
 9.209864e-01 
 9.209167e-01 
 9.776574e-01 
 9.776400e-01 
 9.209492e-01 
 7.049410e-01 
 8.289579e-01 
 8.288958e-01 
 7.050106e-01 
 7.048392e-01 
 8.288463e-01 
 8.288032e-01 
 7.048865e-01 
 9.209864e-01 
 9.209167e-01 
 9.776574e-01 
 9.776400e-01 
 9.209492e-01 
 7.049410e-01 
 8.289579e-01 
 8.288958e-01 
 7.050106e-01 
 7.048392e-01 
 8.288463e-01 
 8.288032e-01 
 7.048865e-01 
 9.967936e-01 
 9.205378e-01 
 9.201717e-01 
 9.773593e-01 
 9.772529e-01 
 9.203804e-01 
 7.045725e-01 
 7.042461e-01 
 8.284482e-01 
 8.282863e-01 
 7.044376e-01 
 7.035957e-01 
 8.280633e-01 
 8.277624e-01 
 7.039742e-01 
 9.967936e-01 
 9.205378e-01 
 9.201717e-01 
 9.773593e-01 
 9.772529e-01 
 9.203804e-01 
 7.045725e-01 
 7.042461e-01 
 8.284482e-01 
 8.282863e-01 
 7.044376e-01 
 7.035957e-01 
 8.280633e-01 
 8.277624e-01 
 7.039742e-01 
 0.000000e+00 
 3.813817e-01 
 3.814562e-01 
 1.944458e-01 
 1.944645e-01 
 3.814216e-01 
 7.047378e-01 
 5.536263e-01 
 5.536933e-01 
 7.046680e-01 
 5.537444e-01 
 5.537886e-01 
 7.047920e-01 
 0.000000e+00 
 3.813817e-01 
 3.814562e-01 
 1.944458e-01 
 1.944645e-01 
 3.814216e-01 
 7.047378e-01 
 5.536263e-01 
 5.536933e-01 
 7.046680e-01 
 5.537444e-01 
 5.537886e-01 
 7.047920e-01 
 9.967931e-01 
 9.967932e-01 
 9.776772e-01 
 9.967932e-01 
 9.210949e-01 
 9.967931e-01 
 9.777020e-01 
 9.777351e-01 
 9.210330e-01 
 8.290415e-01 
 9.967931e-01 
 9.967932e-01 
 9.776772e-01 
 9.967932e-01 
 9.210949e-01 
 9.967931e-01 
 9.777020e-01 
 9.777351e-01 
 9.210330e-01 
 8.290415e-01 
 0.000000e+00 
 0.000000e+00 
 1.947499e-01 
 0.000000e+00 
 3.816590e-01 
 0.000000e+00 
 1.946429e-01 
 1.945776e-01 
 3.817711e-01 
 5.540444e-01 
 0.000000e+00 
 0.000000e+00 
 1.947499e-01 
 0.000000e+00 
 3.816590e-01 
 0.000000e+00 
 1.946429e-01 
 1.945776e-01 
 3.817711e-01 
 5.540444e-01 
 0.000000e+00 
 0.000000e+00 
 1.944239e-01 
 0.000000e+00 
 3.812538e-01 
 0.000000e+00 
 1.943945e-01 
 1.943521e-01 
 3.813288e-01 
 5.535333e-01 
 0.000000e+00 
 0.000000e+00 
 1.944239e-01 
 0.000000e+00 
 3.812538e-01 
 0.000000e+00 
 1.943945e-01 
 1.943521e-01 
 3.813288e-01 
 5.535333e-01 
 9.967934e-01 
 9.967936e-01 
 9.774401e-01 
 9.207385e-01 
 9.967935e-01 
 9.775005e-01 
 9.775448e-01 
 9.206539e-01 
 8.285644e-01 
 9.967934e-01 
 9.967936e-01 
 9.774401e-01 
 9.207385e-01 
 9.967935e-01 
 9.775005e-01 
 9.775448e-01 
 9.206539e-01 
 8.285644e-01 
 9.216621e-01 
 9.780281e-01 
 9.779213e-01 
 9.212957e-01 
 8.298440e-01 
 9.214530e-01 
 8.295430e-01 
 9.778399e-01 
 9.777795e-01 
 9.216621e-01 
 9.780281e-01 
 9.779213e-01 
 9.212957e-01 
 8.298440e-01 
 9.214530e-01 
 8.295430e-01 
 9.778399e-01 
 9.777795e-01 
 0.000000e+00 
 0.000000e+00 
 1.944836e-01 
 3.815310e-01 
 3.814910e-01 
 5.538332e-01 
 1.945057e-01 
 0.000000e+00 
 1.945351e-01 
 0.000000e+00 
 0.000000e+00 
 1.944836e-01 
 3.815310e-01 
 3.814910e-01 
 5.538332e-01 
 1.945057e-01 
 0.000000e+00 
 1.945351e-01 
 0.000000e+00 
 3.802436e-01 
 0.000000e+00 
 1.936176e-01 
 0.000000e+00 
 1.939906e-01 
 3.809681e-01 
 5.524720e-01 
 3.806919e-01 
 5.529049e-01 
 1.941795e-01 
 0.000000e+00 
 1.942866e-01 
 0.000000e+00 
 3.802436e-01 
 0.000000e+00 
 1.936176e-01 
 0.000000e+00 
 1.939906e-01 
 3.809681e-01 
 5.524720e-01 
 3.806919e-01 
 5.529049e-01 
 1.941795e-01 
 0.000000e+00 
 1.942866e-01 
 9.776226e-01 
 9.208473e-01 
 9.208841e-01 
 8.287604e-01 
 9.776027e-01 
 9.775777e-01 
 9.776226e-01 
 9.208473e-01 
 9.208841e-01 
 8.287604e-01 
 9.776027e-01 
 9.775777e-01 
 9.211798e-01 
 8.293197e-01 
 8.291579e-01 
 9.211798e-01 
 8.293197e-01 
 8.291579e-01 
 3.815838e-01 
 5.538844e-01 
 5.539513e-01 
 3.815838e-01 
 5.538844e-01 
 5.539513e-01 
 3.811417e-01 
 5.531999e-01 
 5.533986e-01 
 3.811417e-01 
 5.531999e-01 
 5.533986e-01 
 9.208006e-01 
 8.287114e-01 
 8.286487e-01 
 9.208006e-01 
 8.287114e-01 
 8.286487e-01 
</DataArray> 
</PointData> 
</Piece> 
 </UnstructuredGrid> 
 </VTKFile>