<VTKFile type="UnstructuredGrid"  version="0.1"   >
<UnstructuredGrid>  
<Piece  NumberOfPoints="       25"  NumberOfCells="       32">  
<Points>  
<DataArray  type="Float32"  NumberOfComponents="3"  format="ascii">  
 0.000000 0.000000 0.000000 
 1.000000 0.000000 0.000000 
 1.000000 1.000000 0.000000 
 0.000000 1.000000 0.000000 
 0.500000 0.000000 0.000000 
 1.000000 0.500000 0.000000 
 0.500000 1.000000 0.000000 
 0.000000 0.500000 0.000000 
 0.500000 0.500000 0.000000 
 0.250000 0.000000 0.000000 
 1.000000 0.250000 0.000000 
 0.750000 1.000000 0.000000 
 0.000000 0.750000 0.000000 
 0.750000 0.000000 0.000000 
 1.000000 0.750000 0.000000 
 0.250000 1.000000 0.000000 
 0.000000 0.250000 0.000000 
 0.750000 0.750000 0.000000 
 0.250000 0.250000 0.000000 
 0.750000 0.250000 0.000000 
 0.250000 0.750000 0.000000 
 0.500000 0.250000 0.000000 
 0.750000 0.500000 0.000000 
 0.500000 0.750000 0.000000 
 0.250000 0.500000 0.000000 
</DataArray>  
</Points>  
<Cells>  
<DataArray  type="Int32"  Name="connectivity"  format="ascii">  
        1        19        13  
        3        20        15  
        8        20        24  
        8        19        22  
        4        18         9  
        6        17        11  
        7        18        24  
        5        17        22  
        8        21        19  
        8        23        20  
        3        12        20  
        1        10        19  
        7        16        18  
        5        14        17  
        4        21        18  
        6        23        17  
        4        13        21  
        6        15        23  
        7        24        12  
        5        22        10  
        0         9        16  
        2        11        14  
        8        24        21  
        8        22        23  
       21        13        19  
       23        15        20  
       12        24        20  
       10        22        19  
       16         9        18  
       14        11        17  
       21        24        18  
       23        22        17  
</DataArray> 
<DataArray  type="Int32"  Name="offsets"  format="ascii">  
        3 
        6 
        9 
       12 
       15 
       18 
       21 
       24 
       27 
       30 
       33 
       36 
       39 
       42 
       45 
       48 
       51 
       54 
       57 
       60 
       63 
       66 
       69 
       72 
       75 
       78 
       81 
       84 
       87 
       90 
       93 
       96 
</DataArray> 
<DataArray  type="UInt8"  Name="types"  format="ascii">  
 5 
 5 
 5 
 5 
 5 
 5 
 5 
 5 
 5 
 5 
 5 
 5 
 5 
 5 
 5 
 5 
 5 
 5 
 5 
 5 
 5 
 5 
 5 
 5 
 5 
 5 
 5 
 5 
 5 
 5 
 5 
 5 
</DataArray> 
</Cells> 
<PointData  Scalars="U"> 
<DataArray  type="Float32"  Name="U"  format="ascii">	 
 0.000000e+00 
 0.000000e+00 
 0.000000e+00 
 0.000000e+00 
 9.502209e-01 
 0.000000e+00 
 9.502209e-01 
 0.000000e+00 
 9.502209e-01 
 6.572207e-01 
 0.000000e+00 
 6.572207e-01 
 0.000000e+00 
 6.865946e-01 
 0.000000e+00 
 6.865946e-01 
 0.000000e+00 
 6.682359e-01 
 6.682359e-01 
 6.755794e-01 
 6.755794e-01 
 9.502209e-01 
 6.719076e-01 
 9.502209e-01 
 6.719076e-01 
</DataArray> 
</PointData> 
</Piece> 
 </UnstructuredGrid> 
 </VTKFile>